<?xml version="1.0"?>
<VTKFile type="UnstructuredGrid" version="0.1" byte_order="LittleEndian" compressor="vtkZLibDataCompressor">
  <UnstructuredGrid>
    <Piece NumberOfPoints="50" NumberOfCells="50">
      <PointData Scalars="scalars">
        <DataArray type="Float32" Name="scalars" format="ascii">
          0.218085
          0.200000
          0.200000
          0.300000
          0.300000
          0.218085
          0.200000
          0.284752
          0.266667
          0.200000
          0.200000
          0.200000
          0.200000
          0.266667
          0.300000
          0.200000
          0.200000
          0.218085
          0.251419
          0.300000
          0.251419
          0.266667
          0.233333
          0.300000
          0.300000
          0.233333
          0.300000
          0.266667
          0.284752
          0.218085
          0.300000
          0.300000
          0.300000
          0.300000
          0.300000
          0.233333
          0.266667
          0.300000
          0.300000
          0.300000
          0.266667
          0.300000
          0.200000
          0.300000
          0.233333
          0.233333
          0.200000
          0.266667
          0.233333
          0.200000
          
        </DataArray>
      </PointData>
      <Points>
        <DataArray type="Float32" NumberOfComponents="3" format="ascii">
           0.306667 0.016667 0.218085
           0.293333 -0.363333 0.200000
           0.156667 0.003333 0.200000
           0.780000 0.663333 0.300000
           0.763333 0.463333 0.300000
           0.336667 -0.076667 0.218085
           0.153333 0.673333 0.200000
           0.530000 0.110000 0.284752
           0.476667 0.566667 0.266667
           0.206667 -0.113333 0.200000
           0.253333 -0.223333 0.200000
           0.250000 0.463333 0.200000
           0.233333 0.033333 0.200000
           0.426667 0.850000 0.266667
           0.680000 0.356667 0.300000
           0.183333 0.246667 0.200000
           0.166667 0.380000 0.200000
           0.290000 0.163333 0.218085
           0.423333 0.223333 0.251419
           0.626667 0.033333 0.300000
           0.456667 -0.093333 0.251419
           0.610000 -0.300000 0.266667
           0.440000 -0.266667 0.233333
           0.720000 -0.076667 0.300000
           0.623333 0.160000 0.300000
           0.390000 0.446667 0.233333
           0.636667 0.440000 0.300000
           0.473333 0.356667 0.266667
           0.533333 -0.016667 0.284752
           0.290000 0.066667 0.218085
           0.503333 0.900000 0.300000
           0.606667 0.580000 0.300000
           0.780000 0.960000 0.300000
           0.666667 0.696667 0.300000
           0.800000 0.156667 0.300000
           0.393333 0.706667 0.233333
           0.450000 1.260000 0.266667
           0.690000 1.200000 0.300000
           0.626667 1.046667 0.300000
           0.603333 0.840000 0.300000
           0.376667 1.106667 0.266667
           0.533333 1.153333 0.300000
           0.273333 0.640000 0.200000
           0.490000 1.040000 0.300000
           0.326667 1.226667 0.233333
           0.326667 1.023333 0.233333
           0.226667 0.863333 0.200000
           0.523333 1.393333 0.266667
           0.376667 1.346667 0.233333
           0.253333 1.313333 0.200000
           
        </DataArray>
      </Points>
      <Cells>
        <DataArray type="Int32" Name="connectivity" format="ascii">
          0
          1
          2
          3
          4
          5
          6
          7
          8
          9
          10
          11
          12
          13
          14
          15
          16
          17
          18
          19
          20
          21
          22
          23
          24
          25
          26
          27
          28
          29
          30
          31
          32
          33
          34
          35
          36
          37
          38
          39
          40
          41
          42
          43
          44
          45
          46
          47
          48
          49
          
        </DataArray>
        <DataArray type="Int32" Name="offsets" format="ascii">
          1 2 3 4 5 6 7 8 9 10 11 12 13 14 15 16 17 18 19 20 21 22 23 24 25 26 27 28 29 30 31 32 33 34 35 36 37 38 39 40 41 42 43 44 45 46 47 48 49 50 
        </DataArray>
        <DataArray type="UInt8" Name="types" format="ascii">
          1 1 1 1 1 1 1 1 1 1 1 1 1 1 1 1 1 1 1 1 1 1 1 1 1 1 1 1 1 1 1 1 1 1 1 1 1 1 1 1 1 1 1 1 1 1 1 1 1 1 
        </DataArray>
      </Cells>
    <CellData Normals="cell_normals">
      <DataArray type="Float32" Name="cell_normals" NumberOfComponents="3" format="ascii">
          -0.304044 0.000000 0.952658
          -0.000000 0.000000 1.000000
          0.000000 0.000000 1.000000
          0.000000 0.000000 1.000000
          0.000000 0.000000 1.000000
          -0.237746 -0.118873 0.964026
          0.000000 0.000000 1.000000
          -0.282325 0.030249 0.958842
          -0.451791 -0.108430 0.885510
          0.000000 0.000000 1.000000
          0.000000 0.000000 1.000000
          -0.000000 0.000000 1.000000
          0.000000 0.000000 1.000000
          -0.541981 -0.116139 0.832327
          0.000000 0.000000 1.000000
          -0.000000 0.000000 1.000000
          0.000000 0.000000 1.000000
          -0.228940 0.047696 0.972271
          -0.271336 0.020969 0.962256
          0.000000 -0.000000 1.000000
          -0.304440 -0.096638 0.947617
          -0.155629 -0.162396 0.974375
          -0.329520 -0.041190 0.943250
          -0.000000 0.000000 1.000000
          0.000000 0.000000 1.000000
          -0.345264 0.164411 0.923992
          0.000000 -0.000000 1.000000
          -0.282265 -0.049812 0.958042
          -0.329040 -0.131616 0.935099
          -0.290895 -0.290895 0.911460
          -0.000000 0.000000 1.000000
          0.000000 0.000000 1.000000
          0.000000 0.000000 1.000000
          0.000000 -0.000000 1.000000
          0.000000 -0.000000 1.000000
          -0.497607 -0.046651 0.866147
          -0.319919 0.175955 0.930963
          0.000000 0.000000 1.000000
          0.000000 0.000000 1.000000
          0.000000 0.000000 1.000000
          -0.342119 0.048874 0.938385
          0.000000 0.000000 1.000000
          0.000000 0.000000 1.000000
          0.000000 0.000000 1.000000
          -0.279672 0.209754 0.936903
          -0.512507 -0.161074 0.843440
          0.000000 0.000000 1.000000
          -0.241051 0.241051 0.940100
          -0.332136 -0.415170 0.846947
          0.000000 0.000000 1.000000
          </DataArray>
      </CellData>
      <Cells>
        </Cells>
    </Piece>
  </UnstructuredGrid>
</VTKFile>