<?xml version="1.0"?>
<VTKFile type="UnstructuredGrid" version="0.1" byte_order="LittleEndian" compressor="vtkZLibDataCompressor">
  <UnstructuredGrid>
    <Piece NumberOfPoints="656" NumberOfCells="656">
      <PointData Scalars="scalars">
        <DataArray type="Float32" Name="scalars" format="ascii">
          0
          0
          0
          0
          0
          0
          0
          0
          0
          0
          0
          0
          0
          0
          0
          0
          0
          0
          0
          0
          0
          0
          0
          0
          0
          0
          0
          0
          0
          0
          0
          0
          0
          0
          0
          0
          0
          0
          0
          0
          0
          0
          0
          0
          0
          0
          0
          0
          0
          0
          0
          0
          0
          0
          0
          0
          0
          0
          0
          0
          0
          0
          0
          0
          0
          0
          0
          0
          0
          0
          0
          0
          0
          0
          0
          0
          0
          0
          0
          0
          0
          0
          0
          0
          0
          0
          0
          0
          0
          0
          0
          0
          0
          0
          0
          0
          0
          0
          0
          0
          0
          0
          0
          0
          0
          0
          0
          0
          0
          0
          0
          0
          0
          0
          0
          0
          0
          0
          0
          0
          0
          0
          0
          0
          0
          0
          0
          0
          0
          0
          0
          0
          0
          0
          0
          0
          0
          0
          0
          0
          0
          0
          0
          0
          0
          0
          0
          0
          0
          0
          0
          0
          0
          0
          0
          0
          0
          0
          0
          0
          0
          0
          0
          0
          0
          0
          0
          0
          0
          0
          0
          0
          0
          0
          0
          0
          0
          0
          0
          0
          0
          0
          0
          0
          0
          0
          0
          0
          0
          0
          0
          0
          0
          0
          0
          0
          0
          0
          0
          0
          0
          0
          0
          0
          0
          0
          0
          0
          0
          0
          0
          0
          0
          0
          0
          0
          0
          0
          0
          0
          0
          0
          0
          0
          0
          0
          0
          0
          0
          0
          0
          0
          0
          0
          0
          0
          0
          0
          0
          0
          0
          0
          0
          0
          0
          0
          0
          0
          0
          0
          0
          0
          0
          0
          0
          0
          0
          0
          0
          0
          0
          0
          0
          0
          0
          0
          0
          0
          0
          0
          0
          0
          0
          0
          0
          0
          0
          0
          0
          0
          0
          0
          0
          0
          0
          0
          0
          0
          0
          0
          0
          0
          0
          0
          0
          0
          0
          0
          0
          0
          0
          0
          0
          0
          0
          0
          0
          0
          0
          0
          0
          0
          0
          0
          0
          0
          0
          0
          0
          0
          0
          0
          0
          0
          0
          0
          0
          0
          0
          0
          0
          0
          0
          0
          0
          0
          0
          0
          0
          0
          0
          0
          0
          0
          0
          0
          0
          0
          0
          0
          0
          0
          0
          0
          0
          0
          0
          0
          0
          0
          0
          0
          0
          0
          0
          0
          0
          0
          0
          0
          0
          0
          0
          0
          0
          0
          0
          0
          0
          0
          0
          0
          0
          0
          0
          0
          0
          0
          0
          0
          0
          0
          0
          0
          0
          0
          0
          0
          0
          0
          0
          0
          0
          0
          0
          0
          0
          0
          0
          0
          0
          0
          0
          0
          0
          0
          0
          0
          0
          0
          0
          0
          0
          0
          0
          0
          0
          0
          0
          0
          0
          0
          0
          0
          0
          0
          0
          0
          0
          0
          0
          0
          0
          0
          0
          0
          0
          0
          0
          0
          0
          0
          0
          0
          0
          0
          0
          0
          0
          0
          0
          0
          0
          0
          0
          0
          0
          0
          0
          0
          0
          0
          0
          0
          0
          0
          0
          0
          0
          0
          0
          0
          0
          0
          0
          0
          0
          0
          0
          0
          0
          0
          0
          0
          0
          0
          0
          0
          0
          0
          0
          0
          0
          0
          0
          0
          0
          0
          0
          0
          0
          0
          0
          0
          0
          0
          0
          0
          0
          0
          0
          0
          0
          0
          0
          0
          0
          0
          0
          0
          0
          0
          0
          0
          0
          0
          0
          0
          0
          0
          0
          0
          0
          0
          0
          0
          0
          0
          0
          0
          0
          0
          0
          0
          0
          0
          0
          0
          0
          0
          0
          0
          0
          0
          0
          0
          0
          0
          0
          0
          0
          0
          0
          0
          0
          0
          0
          0
          0
          0
          0
          0
          0
          0
          0
          0
          0
          0
          0
          0
          0
          0
          0
          0
          0
          0
          0
          0
          0
          0
          0
          0
          0
          0
          0
          0
          0
          0
          0
          0
          0
          0
          0
          0
          0
          0
          0
          0
          0
          0
          0
          0
          0
          0
          0
          0
          0
          0
          0
          0
          0
          0
          0
          0
          0
          0
          0
          0
          0
          0
          0
          0
          0
          0
          0
          0
          0
          0
          0
          0
          0
          0
          0
          0
          0
          0
          
        </DataArray>
      </PointData>
      <Points>
        <DataArray type="Float32" NumberOfComponents="3" format="ascii">
           0.300000 -0.430000 0.000000
           0.340000 -0.430000 0.000000
           0.380000 -0.430000 0.000000
           0.420000 -0.430000 0.000000
           0.460000 -0.430000 0.000000
           0.500000 -0.430000 0.000000
           0.180000 -0.390000 0.000000
           0.220000 -0.390000 0.000000
           0.260000 -0.390000 0.000000
           0.300000 -0.390000 0.000000
           0.340000 -0.390000 0.000000
           0.380000 -0.390000 0.000000
           0.420000 -0.390000 0.000000
           0.460000 -0.390000 0.000000
           0.500000 -0.390000 0.000000
           0.540000 -0.390000 0.000000
           0.580000 -0.390000 0.000000
           0.620000 -0.390000 0.000000
           0.180000 -0.350000 0.000000
           0.220000 -0.350000 0.000000
           0.260000 -0.350000 0.000000
           0.300000 -0.350000 0.000000
           0.340000 -0.350000 0.000000
           0.380000 -0.350000 0.000000
           0.420000 -0.350000 0.000000
           0.460000 -0.350000 0.000000
           0.500000 -0.350000 0.000000
           0.540000 -0.350000 0.000000
           0.580000 -0.350000 0.000000
           0.620000 -0.350000 0.000000
           0.660000 -0.350000 0.000000
           0.700000 -0.350000 0.000000
           0.740000 -0.350000 0.000000
           0.780000 -0.350000 0.000000
           0.180000 -0.310000 0.000000
           0.220000 -0.310000 0.000000
           0.260000 -0.310000 0.000000
           0.300000 -0.310000 0.000000
           0.340000 -0.310000 0.000000
           0.380000 -0.310000 0.000000
           0.420000 -0.310000 0.000000
           0.460000 -0.310000 0.000000
           0.500000 -0.310000 0.000000
           0.540000 -0.310000 0.000000
           0.580000 -0.310000 0.000000
           0.620000 -0.310000 0.000000
           0.660000 -0.310000 0.000000
           0.700000 -0.310000 0.000000
           0.740000 -0.310000 0.000000
           0.780000 -0.310000 0.000000
           0.820000 -0.310000 0.000000
           0.180000 -0.270000 0.000000
           0.220000 -0.270000 0.000000
           0.260000 -0.270000 0.000000
           0.300000 -0.270000 0.000000
           0.340000 -0.270000 0.000000
           0.380000 -0.270000 0.000000
           0.420000 -0.270000 0.000000
           0.460000 -0.270000 0.000000
           0.500000 -0.270000 0.000000
           0.540000 -0.270000 0.000000
           0.580000 -0.270000 0.000000
           0.620000 -0.270000 0.000000
           0.660000 -0.270000 0.000000
           0.700000 -0.270000 0.000000
           0.740000 -0.270000 0.000000
           0.780000 -0.270000 0.000000
           0.820000 -0.270000 0.000000
           0.180000 -0.230000 0.000000
           0.220000 -0.230000 0.000000
           0.260000 -0.230000 0.000000
           0.300000 -0.230000 0.000000
           0.340000 -0.230000 0.000000
           0.380000 -0.230000 0.000000
           0.420000 -0.230000 0.000000
           0.460000 -0.230000 0.000000
           0.500000 -0.230000 0.000000
           0.540000 -0.230000 0.000000
           0.580000 -0.230000 0.000000
           0.620000 -0.230000 0.000000
           0.660000 -0.230000 0.000000
           0.700000 -0.230000 0.000000
           0.740000 -0.230000 0.000000
           0.780000 -0.230000 0.000000
           0.820000 -0.230000 0.000000
           0.180000 -0.190000 0.000000
           0.220000 -0.190000 0.000000
           0.260000 -0.190000 0.000000
           0.300000 -0.190000 0.000000
           0.460000 -0.190000 0.000000
           0.500000 -0.190000 0.000000
           0.540000 -0.190000 0.000000
           0.580000 -0.190000 0.000000
           0.620000 -0.190000 0.000000
           0.660000 -0.190000 0.000000
           0.700000 -0.190000 0.000000
           0.740000 -0.190000 0.000000
           0.780000 -0.190000 0.000000
           0.820000 -0.190000 0.000000
           0.180000 -0.150000 0.000000
           0.220000 -0.150000 0.000000
           0.260000 -0.150000 0.000000
           0.300000 -0.150000 0.000000
           0.540000 -0.150000 0.000000
           0.580000 -0.150000 0.000000
           0.620000 -0.150000 0.000000
           0.660000 -0.150000 0.000000
           0.700000 -0.150000 0.000000
           0.740000 -0.150000 0.000000
           0.780000 -0.150000 0.000000
           0.820000 -0.150000 0.000000
           0.180000 -0.110000 0.000000
           0.220000 -0.110000 0.000000
           0.260000 -0.110000 0.000000
           0.620000 -0.110000 0.000000
           0.660000 -0.110000 0.000000
           0.700000 -0.110000 0.000000
           0.740000 -0.110000 0.000000
           0.780000 -0.110000 0.000000
           0.820000 -0.110000 0.000000
           0.140000 -0.070000 0.000000
           0.180000 -0.070000 0.000000
           0.220000 -0.070000 0.000000
           0.260000 -0.070000 0.000000
           0.620000 -0.070000 0.000000
           0.660000 -0.070000 0.000000
           0.700000 -0.070000 0.000000
           0.740000 -0.070000 0.000000
           0.780000 -0.070000 0.000000
           0.820000 -0.070000 0.000000
           0.140000 -0.030000 0.000000
           0.180000 -0.030000 0.000000
           0.220000 -0.030000 0.000000
           0.620000 -0.030000 0.000000
           0.660000 -0.030000 0.000000
           0.700000 -0.030000 0.000000
           0.740000 -0.030000 0.000000
           0.780000 -0.030000 0.000000
           0.820000 -0.030000 0.000000
           0.140000 0.010000 0.000000
           0.180000 0.010000 0.000000
           0.220000 0.010000 0.000000
           0.580000 0.010000 0.000000
           0.620000 0.010000 0.000000
           0.660000 0.010000 0.000000
           0.700000 0.010000 0.000000
           0.740000 0.010000 0.000000
           0.780000 0.010000 0.000000
           0.820000 0.010000 0.000000
           0.140000 0.050000 0.000000
           0.180000 0.050000 0.000000
           0.220000 0.050000 0.000000
           0.580000 0.050000 0.000000
           0.620000 0.050000 0.000000
           0.660000 0.050000 0.000000
           0.700000 0.050000 0.000000
           0.740000 0.050000 0.000000
           0.780000 0.050000 0.000000
           0.820000 0.050000 0.000000
           0.140000 0.090000 0.000000
           0.180000 0.090000 0.000000
           0.580000 0.090000 0.000000
           0.620000 0.090000 0.000000
           0.660000 0.090000 0.000000
           0.700000 0.090000 0.000000
           0.740000 0.090000 0.000000
           0.780000 0.090000 0.000000
           0.820000 0.090000 0.000000
           0.140000 0.130000 0.000000
           0.180000 0.130000 0.000000
           0.620000 0.130000 0.000000
           0.660000 0.130000 0.000000
           0.700000 0.130000 0.000000
           0.740000 0.130000 0.000000
           0.780000 0.130000 0.000000
           0.820000 0.130000 0.000000
           0.140000 0.170000 0.000000
           0.180000 0.170000 0.000000
           0.620000 0.170000 0.000000
           0.660000 0.170000 0.000000
           0.700000 0.170000 0.000000
           0.740000 0.170000 0.000000
           0.780000 0.170000 0.000000
           0.820000 0.170000 0.000000
           0.140000 0.210000 0.000000
           0.180000 0.210000 0.000000
           0.220000 0.210000 0.000000
           0.620000 0.210000 0.000000
           0.660000 0.210000 0.000000
           0.700000 0.210000 0.000000
           0.740000 0.210000 0.000000
           0.780000 0.210000 0.000000
           0.820000 0.210000 0.000000
           0.140000 0.250000 0.000000
           0.180000 0.250000 0.000000
           0.220000 0.250000 0.000000
           0.620000 0.250000 0.000000
           0.660000 0.250000 0.000000
           0.700000 0.250000 0.000000
           0.740000 0.250000 0.000000
           0.780000 0.250000 0.000000
           0.820000 0.250000 0.000000
           0.140000 0.290000 0.000000
           0.180000 0.290000 0.000000
           0.220000 0.290000 0.000000
           0.580000 0.290000 0.000000
           0.620000 0.290000 0.000000
           0.660000 0.290000 0.000000
           0.700000 0.290000 0.000000
           0.740000 0.290000 0.000000
           0.780000 0.290000 0.000000
           0.820000 0.290000 0.000000
           0.140000 0.330000 0.000000
           0.180000 0.330000 0.000000
           0.220000 0.330000 0.000000
           0.340000 0.330000 0.000000
           0.380000 0.330000 0.000000
           0.420000 0.330000 0.000000
           0.460000 0.330000 0.000000
           0.500000 0.330000 0.000000
           0.540000 0.330000 0.000000
           0.580000 0.330000 0.000000
           0.620000 0.330000 0.000000
           0.660000 0.330000 0.000000
           0.700000 0.330000 0.000000
           0.740000 0.330000 0.000000
           0.780000 0.330000 0.000000
           0.820000 0.330000 0.000000
           0.140000 0.370000 0.000000
           0.180000 0.370000 0.000000
           0.220000 0.370000 0.000000
           0.260000 0.370000 0.000000
           0.300000 0.370000 0.000000
           0.340000 0.370000 0.000000
           0.380000 0.370000 0.000000
           0.420000 0.370000 0.000000
           0.460000 0.370000 0.000000
           0.500000 0.370000 0.000000
           0.540000 0.370000 0.000000
           0.580000 0.370000 0.000000
           0.620000 0.370000 0.000000
           0.660000 0.370000 0.000000
           0.700000 0.370000 0.000000
           0.740000 0.370000 0.000000
           0.780000 0.370000 0.000000
           0.820000 0.370000 0.000000
           0.140000 0.410000 0.000000
           0.180000 0.410000 0.000000
           0.220000 0.410000 0.000000
           0.260000 0.410000 0.000000
           0.300000 0.410000 0.000000
           0.340000 0.410000 0.000000
           0.380000 0.410000 0.000000
           0.420000 0.410000 0.000000
           0.460000 0.410000 0.000000
           0.500000 0.410000 0.000000
           0.540000 0.410000 0.000000
           0.580000 0.410000 0.000000
           0.620000 0.410000 0.000000
           0.660000 0.410000 0.000000
           0.700000 0.410000 0.000000
           0.740000 0.410000 0.000000
           0.780000 0.410000 0.000000
           0.820000 0.410000 0.000000
           0.140000 0.450000 0.000000
           0.180000 0.450000 0.000000
           0.220000 0.450000 0.000000
           0.260000 0.450000 0.000000
           0.300000 0.450000 0.000000
           0.340000 0.450000 0.000000
           0.380000 0.450000 0.000000
           0.420000 0.450000 0.000000
           0.460000 0.450000 0.000000
           0.500000 0.450000 0.000000
           0.540000 0.450000 0.000000
           0.580000 0.450000 0.000000
           0.620000 0.450000 0.000000
           0.660000 0.450000 0.000000
           0.700000 0.450000 0.000000
           0.740000 0.450000 0.000000
           0.780000 0.450000 0.000000
           0.820000 0.450000 0.000000
           0.140000 0.490000 0.000000
           0.180000 0.490000 0.000000
           0.220000 0.490000 0.000000
           0.260000 0.490000 0.000000
           0.300000 0.490000 0.000000
           0.340000 0.490000 0.000000
           0.380000 0.490000 0.000000
           0.420000 0.490000 0.000000
           0.460000 0.490000 0.000000
           0.500000 0.490000 0.000000
           0.540000 0.490000 0.000000
           0.580000 0.490000 0.000000
           0.620000 0.490000 0.000000
           0.660000 0.490000 0.000000
           0.700000 0.490000 0.000000
           0.740000 0.490000 0.000000
           0.780000 0.490000 0.000000
           0.820000 0.490000 0.000000
           0.140000 0.530000 0.000000
           0.180000 0.530000 0.000000
           0.220000 0.530000 0.000000
           0.260000 0.530000 0.000000
           0.300000 0.530000 0.000000
           0.340000 0.530000 0.000000
           0.380000 0.530000 0.000000
           0.420000 0.530000 0.000000
           0.460000 0.530000 0.000000
           0.500000 0.530000 0.000000
           0.540000 0.530000 0.000000
           0.580000 0.530000 0.000000
           0.620000 0.530000 0.000000
           0.660000 0.530000 0.000000
           0.700000 0.530000 0.000000
           0.740000 0.530000 0.000000
           0.780000 0.530000 0.000000
           0.820000 0.530000 0.000000
           0.140000 0.570000 0.000000
           0.180000 0.570000 0.000000
           0.220000 0.570000 0.000000
           0.260000 0.570000 0.000000
           0.300000 0.570000 0.000000
           0.340000 0.570000 0.000000
           0.380000 0.570000 0.000000
           0.420000 0.570000 0.000000
           0.460000 0.570000 0.000000
           0.500000 0.570000 0.000000
           0.540000 0.570000 0.000000
           0.580000 0.570000 0.000000
           0.620000 0.570000 0.000000
           0.660000 0.570000 0.000000
           0.700000 0.570000 0.000000
           0.740000 0.570000 0.000000
           0.780000 0.570000 0.000000
           0.820000 0.570000 0.000000
           0.140000 0.610000 0.000000
           0.180000 0.610000 0.000000
           0.220000 0.610000 0.000000
           0.260000 0.610000 0.000000
           0.300000 0.610000 0.000000
           0.340000 0.610000 0.000000
           0.380000 0.610000 0.000000
           0.420000 0.610000 0.000000
           0.460000 0.610000 0.000000
           0.500000 0.610000 0.000000
           0.540000 0.610000 0.000000
           0.580000 0.610000 0.000000
           0.620000 0.610000 0.000000
           0.660000 0.610000 0.000000
           0.700000 0.610000 0.000000
           0.740000 0.610000 0.000000
           0.780000 0.610000 0.000000
           0.820000 0.610000 0.000000
           0.180000 0.650000 0.000000
           0.220000 0.650000 0.000000
           0.260000 0.650000 0.000000
           0.300000 0.650000 0.000000
           0.340000 0.650000 0.000000
           0.380000 0.650000 0.000000
           0.420000 0.650000 0.000000
           0.460000 0.650000 0.000000
           0.500000 0.650000 0.000000
           0.540000 0.650000 0.000000
           0.580000 0.650000 0.000000
           0.620000 0.650000 0.000000
           0.660000 0.650000 0.000000
           0.700000 0.650000 0.000000
           0.740000 0.650000 0.000000
           0.780000 0.650000 0.000000
           0.820000 0.650000 0.000000
           0.180000 0.690000 0.000000
           0.220000 0.690000 0.000000
           0.260000 0.690000 0.000000
           0.300000 0.690000 0.000000
           0.340000 0.690000 0.000000
           0.380000 0.690000 0.000000
           0.420000 0.690000 0.000000
           0.460000 0.690000 0.000000
           0.500000 0.690000 0.000000
           0.540000 0.690000 0.000000
           0.580000 0.690000 0.000000
           0.620000 0.690000 0.000000
           0.660000 0.690000 0.000000
           0.700000 0.690000 0.000000
           0.740000 0.690000 0.000000
           0.780000 0.690000 0.000000
           0.820000 0.690000 0.000000
           0.180000 0.730000 0.000000
           0.220000 0.730000 0.000000
           0.260000 0.730000 0.000000
           0.300000 0.730000 0.000000
           0.340000 0.730000 0.000000
           0.380000 0.730000 0.000000
           0.420000 0.730000 0.000000
           0.460000 0.730000 0.000000
           0.500000 0.730000 0.000000
           0.540000 0.730000 0.000000
           0.580000 0.730000 0.000000
           0.620000 0.730000 0.000000
           0.660000 0.730000 0.000000
           0.700000 0.730000 0.000000
           0.740000 0.730000 0.000000
           0.780000 0.730000 0.000000
           0.820000 0.730000 0.000000
           0.180000 0.770000 0.000000
           0.220000 0.770000 0.000000
           0.260000 0.770000 0.000000
           0.300000 0.770000 0.000000
           0.340000 0.770000 0.000000
           0.380000 0.770000 0.000000
           0.420000 0.770000 0.000000
           0.460000 0.770000 0.000000
           0.500000 0.770000 0.000000
           0.540000 0.770000 0.000000
           0.580000 0.770000 0.000000
           0.620000 0.770000 0.000000
           0.660000 0.770000 0.000000
           0.700000 0.770000 0.000000
           0.740000 0.770000 0.000000
           0.780000 0.770000 0.000000
           0.820000 0.770000 0.000000
           0.180000 0.810000 0.000000
           0.220000 0.810000 0.000000
           0.260000 0.810000 0.000000
           0.300000 0.810000 0.000000
           0.340000 0.810000 0.000000
           0.380000 0.810000 0.000000
           0.420000 0.810000 0.000000
           0.460000 0.810000 0.000000
           0.500000 0.810000 0.000000
           0.540000 0.810000 0.000000
           0.580000 0.810000 0.000000
           0.620000 0.810000 0.000000
           0.660000 0.810000 0.000000
           0.700000 0.810000 0.000000
           0.740000 0.810000 0.000000
           0.780000 0.810000 0.000000
           0.820000 0.810000 0.000000
           0.180000 0.850000 0.000000
           0.220000 0.850000 0.000000
           0.260000 0.850000 0.000000
           0.300000 0.850000 0.000000
           0.340000 0.850000 0.000000
           0.380000 0.850000 0.000000
           0.420000 0.850000 0.000000
           0.460000 0.850000 0.000000
           0.500000 0.850000 0.000000
           0.540000 0.850000 0.000000
           0.580000 0.850000 0.000000
           0.620000 0.850000 0.000000
           0.660000 0.850000 0.000000
           0.700000 0.850000 0.000000
           0.740000 0.850000 0.000000
           0.780000 0.850000 0.000000
           0.180000 0.890000 0.000000
           0.220000 0.890000 0.000000
           0.260000 0.890000 0.000000
           0.300000 0.890000 0.000000
           0.340000 0.890000 0.000000
           0.380000 0.890000 0.000000
           0.420000 0.890000 0.000000
           0.460000 0.890000 0.000000
           0.500000 0.890000 0.000000
           0.540000 0.890000 0.000000
           0.580000 0.890000 0.000000
           0.620000 0.890000 0.000000
           0.660000 0.890000 0.000000
           0.700000 0.890000 0.000000
           0.740000 0.890000 0.000000
           0.780000 0.890000 0.000000
           0.180000 0.930000 0.000000
           0.220000 0.930000 0.000000
           0.260000 0.930000 0.000000
           0.300000 0.930000 0.000000
           0.340000 0.930000 0.000000
           0.380000 0.930000 0.000000
           0.420000 0.930000 0.000000
           0.460000 0.930000 0.000000
           0.500000 0.930000 0.000000
           0.540000 0.930000 0.000000
           0.580000 0.930000 0.000000
           0.620000 0.930000 0.000000
           0.660000 0.930000 0.000000
           0.700000 0.930000 0.000000
           0.740000 0.930000 0.000000
           0.780000 0.930000 0.000000
           0.220000 0.970000 0.000000
           0.260000 0.970000 0.000000
           0.300000 0.970000 0.000000
           0.340000 0.970000 0.000000
           0.380000 0.970000 0.000000
           0.420000 0.970000 0.000000
           0.460000 0.970000 0.000000
           0.500000 0.970000 0.000000
           0.540000 0.970000 0.000000
           0.580000 0.970000 0.000000
           0.620000 0.970000 0.000000
           0.660000 0.970000 0.000000
           0.700000 0.970000 0.000000
           0.740000 0.970000 0.000000
           0.780000 0.970000 0.000000
           0.220000 1.010000 0.000000
           0.260000 1.010000 0.000000
           0.300000 1.010000 0.000000
           0.340000 1.010000 0.000000
           0.380000 1.010000 0.000000
           0.420000 1.010000 0.000000
           0.460000 1.010000 0.000000
           0.500000 1.010000 0.000000
           0.540000 1.010000 0.000000
           0.580000 1.010000 0.000000
           0.620000 1.010000 0.000000
           0.660000 1.010000 0.000000
           0.700000 1.010000 0.000000
           0.740000 1.010000 0.000000
           0.780000 1.010000 0.000000
           0.220000 1.050000 0.000000
           0.260000 1.050000 0.000000
           0.300000 1.050000 0.000000
           0.340000 1.050000 0.000000
           0.380000 1.050000 0.000000
           0.420000 1.050000 0.000000
           0.460000 1.050000 0.000000
           0.500000 1.050000 0.000000
           0.540000 1.050000 0.000000
           0.580000 1.050000 0.000000
           0.620000 1.050000 0.000000
           0.660000 1.050000 0.000000
           0.700000 1.050000 0.000000
           0.740000 1.050000 0.000000
           0.780000 1.050000 0.000000
           0.220000 1.090000 0.000000
           0.260000 1.090000 0.000000
           0.300000 1.090000 0.000000
           0.340000 1.090000 0.000000
           0.380000 1.090000 0.000000
           0.420000 1.090000 0.000000
           0.460000 1.090000 0.000000
           0.500000 1.090000 0.000000
           0.540000 1.090000 0.000000
           0.580000 1.090000 0.000000
           0.620000 1.090000 0.000000
           0.660000 1.090000 0.000000
           0.700000 1.090000 0.000000
           0.740000 1.090000 0.000000
           0.780000 1.090000 0.000000
           0.220000 1.130000 0.000000
           0.260000 1.130000 0.000000
           0.300000 1.130000 0.000000
           0.340000 1.130000 0.000000
           0.380000 1.130000 0.000000
           0.420000 1.130000 0.000000
           0.460000 1.130000 0.000000
           0.500000 1.130000 0.000000
           0.540000 1.130000 0.000000
           0.580000 1.130000 0.000000
           0.620000 1.130000 0.000000
           0.660000 1.130000 0.000000
           0.700000 1.130000 0.000000
           0.740000 1.130000 0.000000
           0.780000 1.130000 0.000000
           0.220000 1.170000 0.000000
           0.260000 1.170000 0.000000
           0.300000 1.170000 0.000000
           0.340000 1.170000 0.000000