<?xml version="1.0"?>
<VTKFile type="UnstructuredGrid" version="0.1" byte_order="LittleEndian" compressor="vtkZLibDataCompressor">
  <UnstructuredGrid>
    <Piece NumberOfPoints="30" NumberOfCells="50">
      <PointData Scalars="scalars">
        <DataArray type="Float32" Name="scalars" format="ascii">
          0.254256
          0.200000
          0.300000
          0.300000
          0.300000
          0.200000
          0.300000
          0.200000
          0.200000
          0.300000
          0.200000
          0.200000
          0.300000
          0.300000
          0.200000
          0.300000
          0.300000
          0.200000
          0.200000
          0.300000
          0.200000
          0.300000
          0.200000
          0.200000
          0.200000
          0.300000
          0.200000
          0.300000
          0.300000
          0.300000
          
        </DataArray>
      </PointData>
      <Points>
        <DataArray type="Float32" NumberOfComponents="3" format="ascii">
           0.420000 0.050000 0.254256
           0.100000 0.300000 0.200000
           0.510000 0.700000 0.300000
           0.700000 0.200000 0.300000
           0.750000 0.800000 0.300000
           0.150000 0.500000 0.200000
           0.850000 0.600000 0.300000
           0.200000 0.100000 0.200000
           0.350000 0.550000 0.200000
           0.600000 0.280000 0.300000
           0.250000 0.340000 0.200000
           0.250000 0.050000 0.200000
           0.570000 0.450000 0.300000
           0.740000 0.590000 0.300000
           0.320000 0.870000 0.200000
           0.450000 0.980000 0.300000
           0.470000 1.120000 0.300000
           0.300000 1.340000 0.200000
           0.250000 -0.050000 0.200000
           0.610000 -0.100000 0.300000
           0.340000 -0.230000 0.200000
           0.850000 -0.330000 0.300000
           0.170000 -0.390000 0.200000
           0.370000 -0.470000 0.200000
           0.210000 1.220000 0.200000
           0.580000 1.320000 0.300000
           0.250000 1.380000 0.200000
           0.570000 0.000000 0.300000
           0.740000 1.480000 0.300000
           0.550000 1.020000 0.300000
           
        </DataArray>
      </Points>
      <Cells>
        <DataArray type="Int32" Name="connectivity" format="ascii">
          0 18 11
          22 20 23
          7 22 1
          6 13 4
          6 3 13
          0 20 18
          24 5 1
          0 9 27
          12 8 2
          7 18 22
          20 22 18
          5 8 10
          11 18 7
          14 15 2
          13 3 9
          1 10 7
          1 5 10
          10 0 7
          10 9 0
          19 27 3
          19 20 0
          23 19 21
          23 20 19
          19 3 21
          27 9 3
          10 8 12
          9 12 13
          9 10 12
          19 0 27
          11 7 0
          15 29 2
          13 12 2
          6 4 28
          13 2 4
          21 3 6
          14 2 8
          17 25 16
          28 4 25
          4 29 25
          4 2 29
          24 16 15
          25 29 16
          5 14 8
          16 29 15
          17 16 24
          24 15 14
          14 5 24
          28 25 26
          26 25 17
          17 24 26
          
        </DataArray>
        <DataArray type="Int32" Name="offsets" format="ascii">
          3 6 9 12 15 18 21 24 27 30 33 36 39 42 45 48 51 54 57 60 63 66 69 72 75 78 81 84 87 90 93 96 99 102 105 108 111 114 117 120 123 126 129 132 135 138 141 144 147 150 
        </DataArray>
        <DataArray type="UInt8" Name="types" format="ascii">
          5 5 5 5 5 5 5 5 5 5 5 5 5 5 5 5 5 5 5 5 5 5 5 5 5 5 5 5 5 5 5 5 5 5 5 5 5 5 5 5 5 5 5 5 5 5 5 5 5 5 
        </DataArray>
      </Cells>
    </Piece>
  </UnstructuredGrid>
</VTKFile>